composition,Eg (eV)
CuBr,3.097687006
Cu3SbSe4,0.879410148
PtSb2,0.053170025
Pb6B2CrO12,2.782813311
PrTe2,1.048613548
AgIn5Te8,0.499075025
CsH3Se2O6,5.176679611
Gd1.05Sc0.95Se3,0.507007599
Mn11Si19,0.796314776
SrTe,3.364267588
Pb0.97Se0.97Sn0.03Se0.03,0.249869704
AgI,2.910519123
Ge0.3Si0.7,1.153439283
Cd3P2,0.582704902
TaON,2.490891933
PdSe2,0.750362635
Ba3EuP3O12,4.347556114
Bi0.4Te3Sb1.6,0.226842701
In0.2P0.2Ga0.8As0.8,1.738956928
Na3MoO4Cl,4.618854523
GaS,2.605693817
PtS,0.239771128
Y4GaSbS9,2.62522769
Zn0.95S0.95Ga0.05P0.05,2.689274788
Rb2CsSb,0.913381398
InSb0.99As0.01,0.226804197
YbB66,0.936159849
TlTiPS5,1.706942797
K10Fe4Sn4S17,0.052342594
Pb0.95Te0.95Ge0.05S0.05,0.329642594
Pb0.94Sn0.06Te,0.242866933
Na3Sb,1.158646226
B12P2,3.50603652
PbI2,2.479707718
EuBiW2O9,1.038857818
Hg2I2,0.182592273
TlInSe2,1.142146349
CaSnO3,3.017070055
CoP2,0.361406863
TlBr,3.067018509
SbSI,1.850120306
Hg0.7Cd0.3Te,0.26987946
RuSe2,1.440982819
Bi2Te2Se,0.255733371
Tl2Se,0.348886311
Ga2Te3,1.667145967
AgFeTe2,0.425581515
TlCl,3.418502092
ZnSe,2.668080568
K3B6O10Cl,5.408261299
Eu3Sb4S9,1.153761148
Na2In2GeS6,2.934485197
AgAlS2,2.394282818
Si30P16Te8,1.255414486
As2Te3,1.681254864
Mg3Sb2,2.167034149
GeSe,1.133625984
In6S7,1.685357571
Zn2In2S5,2.894985914
RbI,5.490411758
KAg2PS4,2.017810106
P2Se5,2.232111931
As2S3,2.52089119
Zn0.7S0.7Ga0.3P0.3,2.533564568
Na2EuGeSe4,1.8945508
MnO,0.231299281
PrF3,5.021162987
NdFMoO4,3.395139456
Bi2YVO8,2.581415653
CsYbCoSe3,1.787332773
K2Hg3Sn2S8,2.559641361
Pb0.99Te0.99Ge0.01S0.01,0.322482765
LiInTe2,1.645470858
K6Nb2.97Ta1.03S25,2.207900524
LiInS2,2.548203945
Hg3PS3,1.788882732
Tb2GeS5,2.061593771
Ag3AsSe3,1.782105923
Mg2Sn,0.058777213
CuIn3Se5,1.089652181
Ca3Ti2Si3O12,4.780955315
Ga0.6Al0.4P,2.391617775
Cu3SbS4,0.876611233
CuNbO3,1.673942208
CdIO4H,4.581280231
Ba3ThSe7,1.552735806
Ag3AsS3,1.999224067
Bi0.2Te3Sb1.8,0.218291581
K2FeGe3Se8,0.856729567
LiNbO3,3.04685092
CdGeP2,1.801075697
MnSb2O4,1.49085331
Pb0.94Sn0.06Se,0.251058221
ZnGeP2,1.879104733
ZrO2,3.625379324
Cd0.01Te0.01Al0.99Sb0.99,1.908140659
NaSbSe2,1.450457335
GaN,3.357135773
CsGaSnSe4,2.035167933
NaSb,1.105896711
K3Bi2I9,1.466160059
Na2ZnSn2S6,2.710270882
GeS2,3.360795975
Cu2ZnSiSe4,1.914168835
Ge0.02Si0.98,1.000334859
CdSe,1.860082269
La4InSbS9,1.950630188
YbIn3S6,1.598997235
CsErZnSe3,2.145393372
TlSe,0.622456014
Zn3Sb2,0.702743649
HgSe,0.124200165
Tl4GaIn3S8,2.284700394
CaO,5.917480469
K3CdB5O10,3.033509493
Ge0.774Si0.226,1.111859202
Hg0.14Zn0.86Te,1.921214581
TlPS2,1.759324551
Bi3Se2NO11,3.549622059
FeSi2,1.01095593
LiSbTe2,2.037166595
Rb3Ag9P4S16,2.164562225
AlP,3.264395952
Sb8O11I2,2.03354454
CdSnAs2,0.460013211
ThOTe,0.309017062
ZnO,3.405805588
Cs2ZnGe3S8,2.637117863
Zn2MoSeO7,0.90519017
Ga2Se3,2.162421227
Tb4Al2O9,0.040446937
In0.5Al0.5P,2.008839607
Bi9O7.5S6,1.637289286
SrTiO3,3.33229208
Cu2Se,1.546907187
PtAs2,0.646226525
Zn0.01S0.01Ga0.99P0.99,2.368320227
AlSb,1.722583175
Cs3Sb,0.733609438
LiI,5.215186119
BaHgS2,2.327792645
BaB2O4,5.524857521
TlInS2,1.779070377
Na2PtI6O18,2.768562794
K6Nb1.07Ta2.93S22,2.357889175
SrSnO3,1.65100956
Cd3As2,0.22471261
K4GeP4Se12,1.905298471
CsInS2,2.742516041
NaAsSe2,1.566151738
SmIn3S6,1.653401613
Cu0.5Pb1.75GeS4,1.691255689
PAs,1.64945662
Pb0.94Se0.94Sn0.06Se0.06,0.251058221
OsP2,1.061591029
Ce8Sb2S15,1.671300054
BaCuSbSe3,1.793447733
ZnTe,2.29072237
BiCuOSe,1.062531829
LiGaS2,3.382294178
PbSe,0.251655161
SnS0.01Se0.99,0.863263607
TlN3,3.095959663
VO2,0.735725045
CsSbTe2,1.133773565
Ga0.6In0.4As,0.732610583
RbBi3Se5,0.513574004
PbCoO3,0.090906739
RbH2I3O9,4.737985134
Tl3VS4,1.704843998
Cu0.5Ga1.5Se2.5,1.765508652
CuGaSe2,1.66269803
ZnS,3.598651886
GaAs,1.492199421
Pb0.77Sn0.23Te,0.289131403
CdSiP2,2.173370361
K2Se,2.142460346
Bi24BO39,2.673755169
CdS,2.553050041
CuGa3Se5,1.765508652
RuP2,0.476256877
InSb,0.207620978
AgGaS2,2.577752113
GeO2,2.250950575
LiGd5P2O13,3.826760054
Li2HgSiS4,2.561040163
CdSb,0.480935931
KBiCu2S3,0.855132401
PbSnS3,1.145789385
HgIn2Te4,1.124963999
Cu0.1In1.9Se2.9,1.089988947
Ag2O,1.484665155
NaYTe4O10,3.045689106
LaCuOSe,1.997530222
MgO,6.585926056
Pb0.85Sn0.15Te,0.248534918
Hg4As2UCl6,0.300793886
AgNb2PS10,2.147816658
PbS,0.348840535
Hg0.2Zn0.8Te,1.769901276
K2Ge3B2O10,5.202251434
Pr2GeSe5,1.598254561
Ag3SbS3,2.044082165
K2CuVS4,2.262819767
CdIn2Se4,1.482499361
In0.99P0.99Ga0.01As0.01,1.384878397
ReSe2,1.079717278
EuS,1.655427456
ZnIn2Te4,1.896689653
K10Co4Sn4S17,0.330607831
CuGa1.6In0.4S3.5,2.389737844
PbBr2,3.13196063
Ba2BiInS5,1.218852758
Li3ScN2,2.550477505
InBi2Se4Br,1.192085624
Pb0.999TeIn0.001,0.341844201
Ba2InSmSe5,2.437865973
PbTe,0.240248919
Sb2Te3,0.257035077
RuTe2,0.76701355
CdTe,1.605666995
CuInGeSe4,1.067835808
NaSbP2S6,2.520208359
LaCuOTe,1.459252834
CdIn2S4,2.251698971
InN,2.303426743
CdS0.01Se0.99,1.712920427
RbBiS2,1.16948688
CsZn4In5Te12,1.72175777
Cs2SnP2Se6,2.162317753
HgPS3,2.485538006
AgF,0.029178858
Ba3B1.5S6Bi0.5,2.252950668
BaSnO3,0.093041778
PrO,0.547433734
In6Se7,1.136740565
YB66,0.870074809
Bi3Ge3O10.5,2.818375111
CrO2,0.317665458
GdB6,2.853257656
Pd3P2S8,1.717073441
Ga0.1As0.1Zn0.9Se0.9,2.142982006
Ag0.4Cd0.2In2.4Te4,0.460230708
Na3ZnB5O10,3.762475014
NiP2,0.182264686
GaSe,2.162109852
AgInSe2,1.103462696
ErN,1.875376225
TlCuCl3,1.996263862
Eu3As2,1.264546633
Zn3As2,1.010751247
AgInO2,1.947030306
AgS,1.019270301
SbI3,2.512445927
K4Ba2Nb4S22,1.935353041
CoSbS,0.034191549
EuIn2Te4,0.892575026
KAu5PS8,1.342789888
Bi2O3,2.987171888
AgAsTe2,0.450580835
SbSi,0.768110275
Hg4As2CdI4,1.692108274
K4Nb2S11,2.284929276
PbO2,1.550999641
La2Se3,1.823714733
NaCl,7.125169754
Ag5IO6,0.607011139
GeS,1.669678926
TlSbTe3,0.470178366
GeSe2O6,0.483077884
Cu3AsSe4,0.943556547
Cd3Bi2,0.028283536
RbBi3Se4Te,0.491736025
Bi25TiO39,2.963784695
AgScO2,0.591381073
CdGeAs2,0.608689785
In2Se2O7,4.308812141
In2Se3,1.160406113
SiSe2,1.698451757
K0.6Cs0.4PSe6,2.234171391
Ba2ZnTe3,1.95113945
Rb2AgPS4,2.33033514
BaCu2SnSe4,1.687421083
SbSeI,1.674715161
Ag2V2I4O16,2.607100487
Zn2MoTeO7,2.43857789
AgInS2,1.738572359
TbSb2BO8,5.574147224
BaGa2SnSe6,2.197696209
Hg0.1Cd0.9Se,0.411223948
V2O4,0.735725045
Zr3O,0.051324904
TlCr5S8,0.944194794
CsLuCoS3,1.859235168
La2MoO5,1.490219235
BaTaO2N,2.569279194
GaBi,0.262291074
K3Ti2P5S18,2.022411585
SiAs2,1.423851013
Eu3Sb4Se9,1.223258495
Cu0.05Ga1.95S2.95,2.626578808
Cu2WSe4,0.061695933
Li6Mo6Se6O33,3.388531685
Rb3Al3Ge7S20,2.77099514
K2Te,1.664512157
Bi12TiO20,2.813867569
KSb5S8,1.566620111
TlPSe2,1.080433726
Bi1.98Te3Sb0.02,0.242220819
ZnSnAs2,0.591778934
LiZnBO3,3.968276739
BaGa2SiSe6,2.605444908
CsCd4In5Te12,0.852777421
Tl2Hg3S4,1.766386509
CuPbBiS3,1.307335138
TlGaTe2,0.927637696
As2Se3,1.730242252
NaBiS2,0.227658391
In0.1P0.1Ga0.9As0.9,1.657185078
InP,1.377052784
Ca2SmTaO6,3.171051025
Cs2B4SiO9,5.967019081
Cs10Cd4Sn4S17,2.712029934
Ho2GeS5,2.004287481
LiInI4O12,4.117148399
CsCl,6.891262054
Pb0.99Sn0.01Se,0.249054253
Li0.2Na0.8AsSe2,1.653175592
ZnMoSb2O7,1.504417181
NaInI4O12,4.228425026
PbSe0.9S0.1,0.32023102
Ba2AgInS4,2.188882589
PtPAs,0.241425276
Tl2CeP2S7,1.28153336
Cd2V2Te2O11,2.881109715
Ho2O3,4.034964561
Ba2GaSbTe5,1.608534813
In0.9Al0.1P,1.532221794
H2Ti6O13,-0.008155942
KAuI4O12,2.504589796
Ba3Tb2P4S16,3.386312008
Al2Te3,2.499370098
FeSc2,0.039916694
CuGaGeSe4,1.858089685
Mg2Pb,0.027698874
ThOSe,1.511898279
Li2CdGe,0.035661936
EuTe,1.78572762
Eu3In2P4,0.791713774
CsGaS3,3.05932951
AsNMg3,1.536244392
BiSCl,1.367403746
Hg0.63Cd0.37Te,0.265135884
Li2FeSnS4,0.932628274
InAs,0.354734182
As2B12,2.305850983
SeS,2.388534069
SmTe,0.463283658
Ag2ZnSiS4,2.376760721
Bi2Te3,0.235708058
K8Zr6Se30,2.116687298
La2O2FeSe2,0.05299145
Cs6Na2Zn4Ge42,0.656507432
Cu2SnSe3,0.811110914
BaSe,3.533177614
TeI4,2.507007599
Hg2I2Te2,0.552852452
Cs2MgSn3Se8,2.056803703
La4InSbSe9,1.409994125
Ga0.8In0.2As,0.708334625
Cu0.99Ga1.01Se2.01,1.662983179
ZnSnSb2,0.539866924
ZnAs2,1.044807553
RbH3Se2O6,5.330639839
Pb0.83Sn0.17Se,0.256105959
Ba2InErTe5,1.231622219
Er2Se3,0.976169646
K2ZnSn2Se6,2.039263725
NaI,5.310139656
CdGa2Se4,2.47318697
GaAs0.99Sb0.01,0.64505434
CuAlSe2,2.448644161
Ba8Al10B12O41,4.657460213
Bi12SiO20,2.958507538
Pb0.95Sn0.05Se,0.250665069
BiZn2VO6,2.472527266
KFe2BiO5,0.028619945
Fe4I3O24H15,3.642673016
Pr2Te3,1.257032871
CuCl,3.260989904
RbZn4In5Se12,2.04915309
Ga2Se2O7,4.412776947
Cu2GeS3,1.769757867
HgGa2S4,2.8716712
Hg0.25Zn0.75Te,1.618171692
CuInTe2,0.961082399
K2Cu2ThS4,2.445661306
K2Gd2Ti3O10,3.638951302
BaHgSe2,1.964191914
InP2S4,2.883511543
ZnSnP2,1.916500449
Ga0.3P0.3Zn0.7Se0.7,2.394082069
SmSnTe2,0.41920495
RuAsS,1.045159936
CeIn3S6,0.959833384
AgSbS2,1.824547291
SrSe,4.452750206
SmP,0.841887832
CaF2,8.181464195
In2GeTe3,0.423419237
Cs2Sn3Sb2S10,2.381739616
Sb2Se3,1.184279203
EuVO4,0.031807899
BaCdSnS4,2.739243746
Li4Rb3B7O14,6.16212368
Cs2Cu3DyTe4,1.812345505
GaP,2.545538664
CuGaInS3.5,2.034623623
KAg2SbS3,2.077819824
In4S5,1.698748112
YbClWO4,0.020767152
HfS3,2.701054573
GaSb,0.76936084
CeN,1.790429831
BaGa2S4,3.14715004
TeO2,3.505523205
Pb2Bi5.9La2.1S14,1.048117876
CeMn0.5OSe,0.044608295
CuBiP2Se6,1.349004388
NdCuOTe,0.069155335
CsBiS2,1.131930113
OsTe2,0.335025847
Rb2Hg3Sn2S8,2.580257893
LiBi4Ta3O12,2.96431303
Zn0.75Cd0.25Se,3.355218649
Cu3DySe3,0.202467084
CdIn2Te4,1.083007693
RuSbSe,0.380075395
SrLa2S4,2.286207199
Bi2S3,1.203573585
Ag2SnSe3,0.814750433
Cu2GeSe3,0.941766381
Sb3O4I,2.068418026
NaBaB5O9,4.516308784
LiInSe2,2.190262794
Zn0.99Cd0.01Se,3.57765913
In2Te,0.468865573
Cu2In4Te7,0.949878931
K3NaSn3Se8,1.848865271
Rb2CuNbS4,2.298658609
OsSb2,0.070887983
K2CuIn3Se6,1.670470476
K2CsSb,1.038963437
CoAsSe,0.155755699
CsCd4Ga5Te12,1.729032755
Pb4Sb6Se13,1.144703507
Cs6.40Na1.60Ga8Ge38,0.782648265
Cs2Hg6S7,1.901074648
K4P8Te4,1.805382252
SnS,1.169178843
Dy3GaS6,2.355555058
InSnAsSe,0.39880985
Ba7AgGa5S15,2.501273632
PSe,2.03303051
K2TeI6,1.688516855
CsSb,0.762817323
Eu3Bi4S9,0.989096582
Ga0.01Al0.99P,2.477313519
RbBa2P5O15,4.842699051
Cu0.1Ga1.9S2.9,2.617478132
InSe,1.125904322
Na2Ga2GeS6,3.24254632
Ba3Sb2S7,2.261942863
RuPAs,0.361097515
KAg2AsS3,2.141878605
Cd0.95Te0.95Al0.05Sb0.05,1.654940128
EuSnTe2,0.768319726
Pb0.8Sn0.2Te,0.273764014
Na2ZnGe2Se6,2.256697416
Tl2Hg3Te4,0.2573663
AgGaSiSe4,2.098266602
PbGa2SiSe6,2.182569027
Cu2ZnSiS4,2.429354191
HgCuSe2O6,1.079672217
Ge0.97Si0.03,0.907821357
CoAsS,-0.024665892
Cu0.01In1.99Se2.99,1.093233824
Cu0.2Ga1.8S2.8,2.602214098
MoO3,1.893334627
ReSi2,0.057289362
Cs3Sb2Br9,2.149663925
Zn3P2,2.042571783
Li2CdSnS4,2.657681704
Li4Cs3B7O14,6.231935501
GaTe,1.760206461
Gd2Te3,1.21949172
CaZnOS,3.223586082
Mg2Co,0.020556211
Pb0.85Ge0.15Te,0.337351918
CuGaS2,2.471009254
Li4.5Cr0.5TeO6,3.627691746
Pb0.95Se0.95Sn0.05Se0.05,0.250665069
Ba2GaErSe5,2.251606464
CdP4,1.178389549
LaP,0.777383447
AgSO4,0.011506915
Pb0.72Se0.72Sn0.28Te0.28,0.29347837
K3Nb2AsSe11,1.738572121
LaInS2O,2.740418196
Ga0.7Al0.3As,2.024502277
CuInS2,1.43146646
BaV2SeO8,3.511534452
ErB6,3.12893343
Cs2AgVS4,2.457658291
CsCdInSe3,2.64936161
Ag2PdO2,0.026013374
BaAgSbS3,2.0690341
GaAs0.3P0.7,2.030843258
InSb2S4Br,1.809129477
Ag3Ga3SiSe8,2.069113016
BiOI,2.018099785
Sn2S,1.033394217
PrSb,0.035220504
CsCd4Ga5S12,3.01329565
MgF2,8.795276642
Ga0.5P0.5Zn0.5Se0.5,2.288605452
InS,1.648911715
AgPbBiSe3,0.223599851
Bi2Te2.1Se0.9,0.255020201
Se0.6Te0.4,1.672853589
In4Se3,1.053630829
Cs2CuP3S9,2.410831928
SiTe2,2.104406834
KAlGeS4,2.885680676
TcSe2,1.360711336
Ga0.75P0.75Zn0.25Se0.25,2.27628231
OsAs2,0.953160167
Ba2GaGdSe5,2.533729553
Pb0.7Ge0.3Te,0.348716319
EuIn2S4,1.607307315
Bi2Te0.9Se2.1,0.267710924
HoN,2.069807053
RhSe3,0.754991174
SbTeI,1.36299634
Zn0.2Ba2B2S5.2,2.841153622
Se0.5Te0.5,1.643787146
Bi1Te3Sb1,0.240619957
Pr2Ge2Se7,1.456969619
CsSmCdSe3,2.452316761
La2CoVO6,0.202895641
Tl4CuTeO6,2.350002766
YFMoO4,3.381903887
Rb3Al3Ge7Se20,2.086483002
SrTaO2N,2.490749836
CsMn4In5Te12,0.820355535
CsBr,5.705530167
YbSb,0.041277647
Cu0.5Ga1.5S2.5,2.559474707
Pb0.85Se0.85Sn0.15Te0.15,0.266045094
RbBiSe2,1.016205788
CuFeS2,0.392026901
GeI2,2.384575367
RbCuSb2S4,1.862536669
Ga0.7In0.3As,0.723829806
Ga1.002Sb0.998Se0.006,0.694508672
Mn15Si26,0.796647072
Er3Te4,0.515960336
K2HgP2Se6,1.988470554
NdLuSe3,1.427476287
Bi6Cu3S10I,1.179398298
SbSBr,2.082510471
Zn0.75Hg0.25Se,1.748970509
PbSe0.01S0.99,0.418312371
Rb2CdBr2I2,2.410390854
Cu2Ga4Te7,1.123992562
Ba2In2Se5,2.278995275
Na2Ga2SnS6,3.005043268
K10Mn4Sn4S17,2.536459208
Bi2Te2.7Se0.3,0.249902427
KCu2SbS3,1.646757841
TiCoSb,0.049864411
PrTaN2O,2.138627052
Pr2Sr2PtO7.07,0.534477413
Cu0.4Ga1.6S2.6,2.570694447
Tl3TaS4,1.342423201
Be3Sb2,1.208909631
V2O5,2.093250751
BiSeI,1.26391232
TlCr5S7Se,0.925192893
GaVTe2O8,2.896794081
Pb0.95Ge0.05Se,0.262041628
CsMn4Ga5Te12,1.747509956
CuI,3.069610357
Sm2S3,2.734781981
Y2O3,3.971248388
TlHg6Se4Br5,1.920837045
K2La2Sb2S9,2.261270046
AgPdI3O9,0.931203246
EuTm2Se4,1.524342537
TiTlSe2,0.970961928
Ca3La2Sn3S12,1.729952216
Cu2ZnSnSe4,1.149629593
K2Au2Sn2Se6,1.210374117
ZnSnO3,2.928197861
Ca5Bi14O26,2.897092104
YNiSb,0.036843836
SrO,5.183400154
Ba5CdGa6Se15,2.447011948
Ag2S,1.046926975
AgGaSe2,1.816644669
AgSbSe2,0.806304336
Sb2S3,1.716483593
SnSe,1.072414517
ZnGeAs2,1.055700064
SiTe2Os,0.050127745
SmCoC2,0.027517021
Ag9Pb4O12,0.276817918
HoSi2Pt2,0.04338932
Ba3CrS5,1.950509548
Sr8Fe3N8,0.034587026
TiAlAu2,0.033043981
CeSi2Pt,0.025475264
Li3Mo2P5O18.2,0.053928196
Mg9CuO10,-0.000760555
Ni2PO5,0.036334157
Sc5Bi3,0.037554801
Hf3P3Pd4,0.041505039
Sm2Fe17,0.052565932
Li5Fe2Ni3O10.2,-0.007516325
NdInAu,0.051150143
GePt2,0.051745296
V6PbO11,1.265285492
ZrNiSn,0.039948046
Nd5Ge4,0.014935911
LiV3O4,0.017083824
KOs2O6,0.001349151
Rb5Tl3O,0.025642693
Eu2Ga9Rh3,0.041384876
FePd2Se2,0.034299672
SiBi3O7,3.249343395
Ti2NiH,0.027040958
Te2MoWS2.164,0.017296672
SrAl,0.03961885
Co3W,0.039925337
YbAgGe,0.051574826
Sc3Re2Si4,0.031284511
GdNi2Ge2,0.044107497
B5Mo2,0.056816697
Yb3Ti3O14,0.013702512
Li2MnO2F.63,0.008775234
CuSeO3,0.021730006
LiY(CuP)2.164,0.010197937
U5Ge3,0.040823221
NdMnSbO.129,0.047094345
KCuPO4.61,0.039606571
PrLuIn2,0.041278243
FePd3,0.043209016
TiFeH2,0.028660834
Ag2BBr,0.049252093
Zr2CuS4,0.613470674
KTm,0.041070163
Yb5Au4,0.047451198
K2Mn3S4,1.0125103
Sb2Te,0.245630443
Ho3Hg,0.047969699
CeBC,0.007084429
Pm2PtAu,0.042598724
La2B4Rh5,0.043112755
BSe2Cl,3.878371716
LaV,0.037825584
Lu7Ni2Te2,0.040151834
CrNiP2O9.62,-0.137195706
HoGe,0.034208179
Sn5B2Ir6,0.044835448
HoTiGe,0.02170819
Cu23Sb8S26,0.81615603
Ti2TcPd,0.042125404
YbGa8Co2,0.021552444
YbSi2Ag2,0.038051128
Na5Cu7O13,0.059373975
TbFe4P12,0.027406931
Ba3CaRu2O9.194,0.021308482
DyZnRh2,0.04887569
LuC2,0.037697732
Nb3Ru,0.041555762
FeAs2O7,-0.044796467
LiTiSiO4.63,-0.041198254
TbPt,0.049229264
YbRh2,0.045361638
SmCrGe3,0.021611989
Sc4Ge6Rh7,0.045619071
YSiRu,0.032704413
SmAu3,0.04417485
ScTi9N9,1.623841286
BaB2Rh2,0.046075821
Zr2In5Ni,0.039909065
CeAgSn,0.051636815
Ho2CuRh,0.04497236
Zr7Sb4,0.045881033
HgPt,0.04964757
CrAs,0.047900915
Dy2Sn5,0.033928692
LiLu2Tc,0.029934287
Li5Mn3(FeO5)2.2,3.49E-05
Ta3P,0.051769555
YbBa4(CuO3)3.223,0.016105592
Yb3Al5O12,3.121130705
LiAlB4,1.885773659
ThPd3,0.039680541
Sm2In,0.029852152
SmIn2Rh,0.05031997
AgW6Br14,0.019000173
Li5Mn5(SbO6)2.5,0.560219586
SmSnPd,0.050765276
Li3Co4O8,-0.028143764
UCo2Ge2,0.034085453
Li4VF7,-0.048782587
GdGeRu,0.050193012
U2Cr30P19,-0.036017776
ScZn2,0.041633487
Sc6FeSb2,0.040965319
TaAl3,0.040651679
ZrAlRu2,0.041141629
In11Cu9Se20,1.048986793
TmIn3,0.04590863
TbNi4P2,0.001259446
Li3Mn2CuO6.12,-0.008362114
V5SiB2,0.033508897
ThIr5,0.040756106
TiCoSn,0.047452569
Y3GaCo3,0.028692484
Sr8Mn3N9,0.017189443
LiZr2Os,0.021788478
DyZrSb,0.042547643
Li2PrP2,0.036591649
SrCuBi,0.055387318
Ti3Fe3O,0.040400386
UFe5Si3,0.03541714
Ni2Mo4N,0.050026476
Nb5Ge3,0.051666379
CrIrO4,0.001349449
CuPd,0.0422737
YMg4Cu,0.025909305
Na19Zr11S30,2.602353334
Sm4MgRh,0.048582852
TbInAg2,0.050033987
W3O7F,0.49776417
HoAlAu2,0.043121338
LaScSi,0.027001202
HgIrO3,0.027152419
Hf2Hg,0.043307781
Ti2CoGe,0.036085844
Ho3AlC,0.001619279
MnCu3,0.049175262
SrAg,0.017985046
YbAl2Ga2,0.017870486
MgScAg2,0.040658116
Dy2ZnIn,0.048434973
Nd2CdIn,0.0479936
Ga3Pt2,0.045663774
Mn3V2(SiO4)3.230,-0.014988065
LaMg(FeO3)2.31,0.054476976
YbGeRh,0.051960707
SmC10,0.772082388
Nb3IrSe8,0.060927272
Ba3Nb2CoO9.164,0.048985004
KNb2O5,0.209134221
SrZnSb2,0.092469513
Ca5Au2,0.043295264
SmHgPd,0.045336902
InSiTe3,1.026837707
AlSn,0.044719994
Li3C,0.542750835
ZrSe,1.426252365
ZrInRh2,0.049398899
Li2CrCo3O8.5,-0.035911083
NiGePt2,0.052228749
AlIr,0.036288023
CoP4O12,-0.12033999
Sr2Li2Nb3O10.42,0.536709845
YbPr11Se16,1.254277468
Sm3OsO7,-0.000962317
CeTlZn,0.029807031
CuN2O6,-0.046792269
AgGeO3,0.026307106
Tl3Ir,0.047460973
Ce4Bi3,0.052098453
Li6Ni5O10,-0.00039202
BePd2,0.048281312
Mn5O7,0.351622939
Li2Cu2S3,1.568408489
TiZn3,0.038348019
PmDy3,0.052586854
Cu6PbO8,0.248117983
LiMo3O8,1.417938113
DyS2,2.728629589
HoInAu2,0.052633941
Li3Dy,0.003578424
K4C2O3,0.488475531
Y3Al3NiGe2.189,0.004502714
CaGa3Ni2,0.011017859
NdTe,1.322164774
Li13Nb14ZnO42.1,2.852747917
V3Pt,0.039881885
SrB2,1.515159607
PrTmTl2,0.048024654
Li3V4FeO12.5,0.005328536
Hf3Si4Cu4,0.036843419
Na6CoSe4,0.035433829
BaFe2S4,0.050569892
Ti2Sb(PO4)3.167,0.004594922
LuHfRu2,0.041858315
Nb5OF14,0.029347122
ReF6,-0.045797825
CaHfZn,0.042374492
SiSb3,0.528430402
Fe12As5,0.051153302
Ba2FeMoO6.225,0.030774117
Al3Tc,0.0490641
Sm2RuAu,0.044276536
Tm2Ru2O7,0.036802113
Ce3MnAlS7.173,1.312366009
ErAgSn,0.054925978
Ba3Li4Sn8,0.027576566
Li6FeO6,0.015991151
ErZn12,0.023374498
Ca3In,0.025089979
Ti2ReRu,0.039097667
VNi5(PO4)6.146,-0.119795561
TbGe2Pd2,0.048380315
Ag7S2I2,0.790432215
TiI,0.056859016
Ta4FeTe4,0.04450345
Li2Fe2(PO4)3.15,-0.055501938
SrCe2S4,1.62495327
ErNi4Au,0.037576318
Hg3C,0.053318501
TiCr3(PO4)6.146,-0.005291462
DyAl8Cu4,0.018716276
DyInPt2,0.05101198
Ca2Mn9O13,0.071677148
GeRh,0.184075654
Ni3Pt,0.042069554
Cu3Pd,0.039646924
SrTl2,0.050101995
HfSi,0.030328214
Ce3Al12Ru4,0.040417075
CsIr,0.043497741
LuGe2,0.035537302
SrIn4Ir,0.047635972
Nb3B2,0.03390485
HoC2,0.000115514
ZrRu3C,0.03357172
Hf7P4,0.057614565
Li5Bi4O12,0.203676462
NdAl4Ge2Au.166,0.004829824
Ho2Co17,0.04475379
Gd6Ta4Al43,0.044973731
Zn3Cu10(TeO6)6.1,0.093719959
UPt3,0.039501071
Zr6Sb2Pt,0.050784349
EuLi2Sn,0.010570288
CaB2Ir2,0.043329835
Dy6FeTe2,0.04572016
Sr2GaCo2O7.46,0.047730148
YBi,0.052069783
GdO2,5.161880493
ErB2Ru3,0.041441083
YTiO3,0.193226755
TmCdAg2,0.050621033
Ce4FeSe6O.186,0.184824109
Li2U(MoO5)2.2,0.031713963
UAu2,0.039740622
Ti2B,0.032261431
Li4WO5,1.478513241
DySiIr,0.036675453
Ce3SiPt5,0.038706124
CaTi4S8,0.147291064
SrCo2P2,0.049156666
Cu4W(SCl)4.139,2.745954514
Lu2MgHg,0.029295206
CrMo2S4,0.910433412
Y2Ge2O7,0.03101325
Ba2YReO6.225,0.109833956
Fe2Cu(PO4)3.167,-0.038587213
BeTcSe,0.038807869
Ti2AlV,0.029957294
Tm2TcCu,0.044521809
Sm2Mo2O7,3.408789635
DyAg,0.052891672
TbCo2Ge2,0.049691439
NdCu3(RuO3)4.204,0.024228334
Ho3P,0.047187924
SbPt3,0.047549665
Cd2AgRh,0.053023398
HfV2H4,0.032689095
Li6Fe3Co7O20.10,-0.018072426
Ba7Ru4Br2O15.166,0.043265224
HfCo3B2,0.033969641
LiHg2Pd,0.034122169
Zr4AlNi2,0.030522525
Hf5Pb,0.040422916
Ti3Pt5,0.048388362
Ho2Pd2Pb,0.050938368
ZrGe2,0.036180973
MgMnO3,-0.001520514
Y4AsSe3,0.028466761
Li2CrCuO4.74,-0.048038721
Ti2Be17,0.040923536
UCu2P2,0.01906836
MgSn4O8,3.034398079
YMgCu4,0.03004384
PrAgAs2,0.038597703
La2Fe2I,0.046580017
U2Co21B6,0.04177177
Li6Fe9CoO20.6,-0.018485963
CsGa7,0.02985841
YAs,0.009073734
Tm2ZnHg,0.048755765
DyZrRu2,0.045615852
LaPd3S4,1.134117603
YSn3,0.03559655
AsSeBr,2.442461967
EuNaO2,0.247416019
YTmCu2,0.039911449
CaSi2Pd2,0.047548592
CsMo3O9,3.554573536
CeSiIr,0.017773449
Hf5Sb9,0.053230643
CeNbO4,0.733171105
LiAl2Rh,0.030369818
TmTl,0.048200786
Ti2ReRh,0.039469779
Li3Fe(CoO2)4.2,-0.016091049
Hf2OsPd,0.041608691
EuAgSb,0.053905129
CoN,0.042938769
NdBi,0.05497992
UCo4Sn,0.038150311
Lu7Te2Pd2,0.049487174
ZnCu2O4,-0.017483175
Ce3AlC,-0.008222759
ErAlGe,0.012692153
NdMgNi4,0.025488436
V3CuO8,-0.101221323
InMo3Se3,0.047274411
FeCoAs,0.048452854
LiHf2Ir,0.025605142
LiNi2(PO4)3.15,-0.130432129
CeGaO3,0.427857578
PmMgRh2,0.045707941
YCdPt2,0.048253894
NdPt,0.048877895
LaReB,0.03155607
Pd3Pb2S2,0.063105702
Ce3Pd5,0.025408149
TmThRu2,0.045191348
NdAl8Co2,0.007853031
Li2Co4O7F.8,-0.051919937
Sc2CuRu,0.044082284
Ce2Cu(NO)2.139,0.099107504