composition,Eg (eV)
La20Cu9O40,1.119243145
PmLi2Al,0.011016965
InAu3,0.051998734
Yb3Sn13Rh4,0.050219893
CsRbP,1.119433999
SrIn2Rh,0.045847654
NdNiC2,0.015940487
PmLi2Ge,0.01323837
ScZnPt2,0.039700091
Li3Mn4O8,0.016941488
Li4Mn5Nb3O16.1,1.980465531
CeSi2Ni,-0.022336841
VPt2,0.050654292
YbDyPd2,0.045835853
MnSb3(PO4)6.146,-0.004363894
Ca2ZnRh,0.036052883
SmAlCu,0.03354913
Ce2ZnNi2,0.027941942
Li2Ti3FeO8.166,0.002200186
MnNiP,0.002218902
NdGa2Ni,0.010957241
CsGdO3,3.847899914
ZrInCu2,0.044700682
Na9W16O48,0.033056855
V3H4O8,-0.015467584
SmNi2Sn2,0.052381277
MgMnRh2,0.049892783
Ca2Co9O13,0.012846529
TbRh2,0.050225973
LiAgF3,0.20390892
BaPt5,0.051816761
LiMn9Se10,0.158002198
Pr4Sb3,0.032841206
Ca11Ga7,0.027300596
Pm2LiIr,0.02927804
Er5NiPb3,0.049815357
LiCu2(CO3)2.1,-0.004896104
TbTe,0.375549674
Mg2Zr14O5,0.041256547
AlNi2S4,0.001833081
Li4Ni3BiO8.166,0.150439203
Ni4P3O12,0.010103405
CaCo2Ge2,0.03387326
TmMnO3,0.028620064
K2RuCl6,-0.068808198
Cu2PHO5.58,-0.04333961
ZrSb,0.05054009
LiCuO2,0.028347015
EuIn2As2,0.252850771
DyAgGe,0.054532766
BiPd,0.057676733
Ti10O11,0.184155107
CeAl2Pt3,0.033216774
Er6MnBi2,0.046747446
YbSnRh,0.052436948
Rb2CrF6,-0.007362723
FeOF,-0.049392104
BaMn4O7,0.059221327
Li4Mn(WO4)3.1,0.032209158
Rb5W18O54,0.022021592
Zr2Al,0.033625603
HoGeAu,0.051784515
Mn3SbO8,0.278507769
PrP,1.136143208
Ti5ZnO7,-0.007859111
Li12Fe5O16,0.006835341
Al6Tc,0.040230155
InHgW2,0.043036938
KLu,0.042703092
Nb6Co7,0.044155478
HfTc,0.044785619
ZrTi2O,0.035587072
CeSi2Au2,0.033789277
ThAl8Fe4,0.041982293
Mn3Cr3(CoO8)2.8,-0.033614099
SmNiAs,0.0458197
Ta4N5,1.184783101
LiMnCoO4.74,-0.037512302
HfCu2P2,0.04788667
Hg3As,0.044342518
YbZnPt,0.052632868
LiGaPd2,0.029623866
Ti20Sb9Se3,0.025915623
RbBi2,0.245888591
Rb2Mo9Se10,0.048426569
Lu2InHg,0.043091238
SrUS2,0.032031953
LiIn2Rh,0.0439924
TiC,0.035036743
Lu2CdIn,0.038705945
PrB4,3.882974625
Be22Re,0.024184167
U2SnRh2,0.045411766
UNiSn,0.034218252
TbCo2,0.047441304
YbIr2,0.046031773
Tl3Si,0.049736321
Na8Cu5O10,0.042308092
Li3MnAs2,0.167993963
Fe3Si,0.0486902
ErB2Ir3,0.038968384
Ga8Cu3Mo2,0.106450975
HoSi2Pd2,0.029967904
Li3CrO4,-0.024690926
Ba2CuWO6.87,0.044168949
TaAs,0.050091624
V2GaSn2,0.010477304
Ba14Pd3Ir8O33.5,-0.006504118
LiGaPt2,0.037207663
Ca2Ti9O13,0.059769273
EuF3,7.427351952
Li4CrO5,-0.023136497
VPO4,0.603462577
BaAg,0.018447876
AlB2,1.934830904
Sm2Tl,0.030573547
TbGe2Rh2,0.055262625
AgPt3,0.050518632
Ag2BiO3,0.338405728
NiGe,0.047316551
Eu3Sn,0.049654901
La2Ge5Rh3,0.042732775
YbMgPd,0.039784849
MgRhF6,-0.05450666
Mn2OF3,0.017927527
KAg2,0.034048378
CuIr2S4,0.028414488
BaAs2Rh2,0.045343637
ScCoO3,0.007038057
Tb2Sb5,0.018531024
Lu2AlTc,0.026559353